LAMMPS (2 Apr 2025)
OMP_NUM_THREADS environment is not set. Defaulting to 1 thread. (src/comm.cpp:99)
  using 1 OpenMP thread(s) per MPI task
suffix		omp
units		si
package		omp 4
set 4 OpenMP thread(s) per MPI task
using multi-threaded neighbor list subroutines

##############################################################################
#variables
##############################################################################
variable	pi equal 3.1415927

include		pour_variables.txt
variable	gravity equal 9.81
variable	density_rho equal 1700
variable	young_mod_E equal 10055000000.0
variable	poisson equal 0.12
variable	co_fric equal 0.035
variable	co_rest equal 0.02
variable	run_factor equal 20
variable	interval equal 500000
variable	t_final equal 300
variable	r_pebble equal 0.03
variable	seed equal 4345343431384
variable	recirc_target equal 1
variable	recirc_rate equal 1
variable	recirc_hz equal 1
variable	v_center equal 1
variable	v_mid equal 1
variable	v_wall equal 1

variable	skin equal ${r_pebble}/4
variable	skin equal 0.03/4

variable	d_pebble equal 2*${r_pebble}
variable	d_pebble equal 2*0.03
variable	mass equal ${density_rho}*(4/3)*${pi}*(${r_pebble}^3)
variable	mass equal 1700*(4/3)*${pi}*(${r_pebble}^3)
variable	mass equal 1700*(4/3)*3.1415927*(${r_pebble}^3)
variable	mass equal 1700*(4/3)*3.1415927*(0.03^3)
variable	shear_mod_G equal ${young_mod_E}/(2*(1+${poisson}))
variable	shear_mod_G equal 10055000000/(2*(1+${poisson}))
variable	shear_mod_G equal 10055000000/(2*(1+0.12))
variable	k_n equal (4*${shear_mod_G})/(3*(1-${poisson}))
variable	k_n equal (4*4488839285.71428)/(3*(1-${poisson}))
variable	k_n equal (4*4488839285.71428)/(3*(1-0.12))
variable	k_t equal (4*${shear_mod_G})/(2-${poisson})
variable	k_t equal (4*4488839285.71428)/(2-${poisson})
variable	k_t equal (4*4488839285.71428)/(2-0.12)
variable	numerator equal (2*${k_n})/${mass}
variable	numerator equal (2*6801271645.02164)/${mass}
variable	numerator equal (2*6801271645.02164)/0.19226547324
variable	denominator equal (${pi}/(-2*log(${co_rest})))^2+0.25
variable	denominator equal (3.1415927/(-2*log(${co_rest})))^2+0.25
variable	denominator equal (3.1415927/(-2*log(0.02)))^2+0.25
variable	gamma_n equal sqrt(${numerator}/${denominator})
variable	gamma_n equal sqrt(70748757230.3925/${denominator})
variable	gamma_n equal sqrt(70748757230.3925/1.1048075396947)
variable	gamma_t equal 0.5*${gamma_n}
variable	gamma_t equal 0.5*253055.681897277

variable	t_col equal ${pi}/sqrt(2*(${k_n}/${mass})-(${gamma_n}^2)/4)
variable	t_col equal 3.1415927/sqrt(2*(${k_n}/${mass})-(${gamma_n}^2)/4)
variable	t_col equal 3.1415927/sqrt(2*(6801271645.02164/${mass})-(${gamma_n}^2)/4)
variable	t_col equal 3.1415927/sqrt(2*(6801271645.02164/0.19226547324)-(${gamma_n}^2)/4)
variable	t_col equal 3.1415927/sqrt(2*(6801271645.02164/0.19226547324)-(253055.681897277^2)/4)
variable	dt equal ${t_col}/50
variable	dt equal 1.34276376771945e-05/50
variable	tot_run equal ${run_factor}*${interval}
variable	tot_run equal 20*${interval}
variable	tot_run equal 20*500000

##############################################################################
#simulation parameters
##############################################################################
newton		on
atom_style	sphere

boundary	f f f
region		bounds block 		-1.3499999999999999 1.3499999999999999 -1.3499999999999999 1.3499999999999999 0.39 9.7
create_box	1 bounds
Created orthogonal box = (-1.35 -1.35 0.39) to (1.35 1.35 9.7)
  1 by 1 by 1 MPI processor grid

pair_style	gran/hertz/history/omp 		${k_n} ${k_t} ${gamma_n} ${gamma_t} ${co_fric} 1
pair_style	gran/hertz/history/omp 		6801271645.02164 ${k_t} ${gamma_n} ${gamma_t} ${co_fric} 1
pair_style	gran/hertz/history/omp 		6801271645.02164 9550721884.49847 ${gamma_n} ${gamma_t} ${co_fric} 1
pair_style	gran/hertz/history/omp 		6801271645.02164 9550721884.49847 253055.681897277 ${gamma_t} ${co_fric} 1
pair_style	gran/hertz/history/omp 		6801271645.02164 9550721884.49847 253055.681897277 126527.840948639 ${co_fric} 1
pair_style	gran/hertz/history/omp 		6801271645.02164 9550721884.49847 253055.681897277 126527.840948639 0.035 1
pair_coeff	* *

neighbor	${skin} multi
neighbor	0.0075 multi
neigh_modify	delay 0 every 1 check yes
thermo		1000
timestep	${dt}
timestep	2.6855275354389e-07

comm_style	brick
comm_modify	mode multi group all vel yes
balance		1.1 shift xyz 20 1.1
Balancing ...
Generated 0 of 0 mixed pair_coeff terms from geometric mixing rule
Last active /omp style is pair_style gran/hertz/history/omp
Neighbor list info ...
  update: every = 1 steps, delay = 0 steps, check = yes
  max neighbors/atom: 2000, page size: 100000
  master list distance cutoff = 0
  ghost atom cutoff = 0
  binsize = 2.7, bins = 1 1 4
  1 neighbor lists, perpetual/occasional/extra = 1 0 0
  (1) pair gran/hertz/history/omp, perpetual
      attributes: half, newton on, size, history, omp
      pair build: half/size/multi/atomonly/newton/omp
      stencil: half/multi/3d
      bin: multi
WARNING: Communication cutoff is 0.0. No ghost atoms will be generated. Atoms may get lost. (src/comm_brick.cpp:212)
fix		bal all balance 10000 1.1 shift xyz 20 1.01

##############################################################################
#geometry
##############################################################################


include		main_cyl_region.txt
region		whole_core cylinder z 0.0 0.0 1.2 		0.54 10.0 side in units box 		 open 2

fix		grav all gravity ${gravity} vector 0 0 -1
fix		grav all gravity 9.81 vector 0 0 -1
fix		nve_int all nve/sphere
fix		wall_gran all wall/gran/region hertz/history 		${k_n} ${k_t} ${gamma_n} ${gamma_t} ${co_fric} 1 		region whole_core
fix		wall_gran all wall/gran/region hertz/history 		6801271645.02164 ${k_t} ${gamma_n} ${gamma_t} ${co_fric} 1 		region whole_core
fix		wall_gran all wall/gran/region hertz/history 		6801271645.02164 9550721884.49847 ${gamma_n} ${gamma_t} ${co_fric} 1 		region whole_core
fix		wall_gran all wall/gran/region hertz/history 		6801271645.02164 9550721884.49847 253055.681897277 ${gamma_t} ${co_fric} 1 		region whole_core
fix		wall_gran all wall/gran/region hertz/history 		6801271645.02164 9550721884.49847 253055.681897277 126527.840948639 ${co_fric} 1 		region whole_core
fix		wall_gran all wall/gran/region hertz/history 		6801271645.02164 9550721884.49847 253055.681897277 126527.840948639 0.035 1 		region whole_core

variable	pix_width equal round((abs(-1.3499999999999999)+abs(1.3499999999999999))*250)
variable	pix_height equal round((abs(0.39)+abs(9.7))*250)

dump		peb_coords all custom ${interval} coords_*.txt id type x y z
dump		peb_coords all custom 500000 coords_*.txt id type x y z
dump		peb_gif all movie 5000 pour.gif type diameter 		view 90 0 box no 0.0 size ${pix_width} ${pix_height}
dump		peb_gif all movie 5000 pour.gif type diameter 		view 90 0 box no 0.0 size 675 ${pix_height}
dump		peb_gif all movie 5000 pour.gif type diameter 		view 90 0 box no 0.0 size 675 2523

dump_modify	peb_gif acolor * powderblue

thermo_style	custom step cpu time atoms ke
thermo_modify	flush yes lost warn

##############################################################################
#filling core
##############################################################################

read_dump	rough-pack.txt 0 x y z add yes timestep no
Adding 'type' field to requested per-atom fields
Scanning dump file ...
Reading snapshot from dump file ...
  orthogonal box = (-1.35 -1.35 0.39) to (1.35 1.35 9.7)
  0 atoms before read
  208120 atoms in snapshot
  0 atoms purged
  0 atoms replaced
  0 atoms trimmed
  208120 atoms added
  208120 atoms after read

set		type 1 diameter ${d_pebble}
set		type 1 diameter 0.06
Setting atom values ...
  208120 settings made for diameter

run		${interval}
run		500000

CITE-CITE-CITE-CITE-CITE-CITE-CITE-CITE-CITE-CITE-CITE-CITE-CITE

Your simulation uses code contributions which should be cited:

- neighbor multi command: doi:10.1016/j.cpc.2008.03.005, doi:10.1007/s40571-020-00361-2

@Article{Intveld08,
 author =  {in 't Veld, P. J. and S. J.~Plimpton and G. S. Grest},
 title =   {Accurate and Efficient Methods for Modeling Colloidal
            Mixtures in an Explicit Solvent using Molecular Dynamics},
 journal = {Comput.\ Phys.\ Commut.},
 year =    2008,
 volume =  179,
 pages =   {320--329}
}

@article{Shire2020,
 author = {Shire, Tom and Hanley, Kevin J. and Stratford, Kevin},
 title = {{DEM} Simulations of Polydisperse Media: Efficient Contact
          Detection Applied to Investigate the Quasi-Static Limit},
 journal = {Computational Particle Mechanics},
 year = {2020}
@article{Monti2022,
 author = {Monti, Joseph M. and Clemmer, Joel T. and Srivastava, 
           Ishan and Silbert, Leonardo E. and Grest, Gary S. 
           and Lechman, Jeremy B.},
 title = {Large-scale frictionless jamming with power-law particle 
          size distributions},
 journal = {Phys. Rev. E},
 volume = {106}
 issue = {3}
 year = {2022}
}

CITE-CITE-CITE-CITE-CITE-CITE-CITE-CITE-CITE-CITE-CITE-CITE-CITE

Generated 0 of 0 mixed pair_coeff terms from geometric mixing rule
Last active /omp style is pair_style gran/hertz/history/omp
Per MPI rank memory allocation (min/avg/max) = 166.4 | 166.4 | 166.4 Mbytes
   Step          CPU            Time         Atoms        KinEng    
WARNING: Lost atoms: original 208120 current 201702
For more information see https://docs.lammps.org/err0008 (src/thermo.cpp:523)
         0   0              0                 201702   0            
      1000   22.481367      0.00026855275     201702   0.36644904   
      2000   45.344592      0.00053710551     201702   1.4645744    
      3000   68.23687       0.00080565826     201702   3.2898606    
      4000   91.045054      0.001074211       201702   5.838814     
      5000   114.07077      0.0013427638      201702   9.1163498    
      6000   137.2385       0.0016113165      201702   13.129255    
      7000   159.36786      0.0018798693      201702   17.874103    
      8000   181.87969      0.002148422       201702   23.343915    
      9000   204.42297      0.0024169748      201702   29.539027    
     10000   226.88479      0.0026855275      201702   36.464238    
     11000   249.48087      0.0029540803      201702   44.121945    
     12000   271.51224      0.003222633       201702   52.511452    
     13000   294.03169      0.0034911858      201702   61.630029    
     14000   316.37776      0.0037597385      201702   71.473534    
     15000   338.83855      0.0040282913      201702   82.043191    
     16000   361.43078      0.0042968441      201702   93.345711    
     17000   383.66552      0.0045653968      201702   105.38105    
     18000   405.91014      0.0048339496      201702   118.1438     
     19000   428.09478      0.0051025023      201702   131.63234    
     20000   450.47744      0.0053710551      201702   145.84872    
     21000   472.94193      0.0056396078      201702   160.79671    
     22000   495.31859      0.0059081606      201702   176.47671    
     23000   517.57236      0.0061767133      201702   192.8846     
     24000   539.81284      0.0064452661      201702   210.01963    
     25000   562.23196      0.0067138188      201702   227.88002    
     26000   584.91998      0.0069823716      201702   246.47117    
     27000   607.41027      0.0072509243      201702   265.79423    
     28000   629.69753      0.0075194771      201702   285.84549    
     29000   651.98466      0.0077880299      201702   306.62211    
     30000   674.39534      0.0080565826      201702   328.12761    
     31000   696.94168      0.0083251354      201702   350.36198    
     32000   719.36123      0.0085936881      201702   373.32999    
     33000   741.68376      0.0088622409      201702   397.02292    
     34000   764.07433      0.0091307936      201702   421.44534    
     35000   786.75798      0.0093993464      201702   446.59242    
     36000   809.13702      0.0096678991      201702   472.4657     
     37000   831.44073      0.0099364519      201702   499.07154    
     38000   853.76366      0.010205005       201702   526.40705    
     39000   876.40785      0.010473557       201702   554.47064    
     40000   899.17979      0.01074211        201702   583.26232    
     41000   921.62005      0.011010663       201702   612.77555    
     42000   944.1456       0.011279216       201702   643.01618    
     43000   966.28285      0.011547768       201702   673.98699    
     44000   988.42837      0.011816321       201702   705.68305    
     45000   1010.8953      0.012084874       201702   738.10356    
     46000   1033.2554      0.012353427       201702   771.24755    
     47000   1055.6466      0.012621979       201702   805.12894    
     48000   1078.1643      0.012890532       201702   839.73111    
     49000   1100.3495      0.013159085       201702   875.05828    
     50000   1122.6866      0.013427638       201702   911.11745    
     51000   1145.3346      0.01369619        201702   947.8981     
     52000   1167.628       0.013964743       201702   985.41506    
     53000   1189.9972      0.014233296       201702   1023.6642    
     54000   1212.3201      0.014501849       201702   1062.6201    
     55000   1234.4841      0.014770401       201702   1102.2886    
     56000   1256.8038      0.015038954       201702   1142.7086    
     57000   1279.0867      0.015307507       201702   1183.8541    
     58000   1301.5275      0.01557606        201702   1225.7251    
     59000   1323.753       0.015844612       201702   1268.323     
     60000   1346.2417      0.016113165       201702   1311.6485    
     61000   1368.585       0.016381718       201702   1355.6956    
     62000   1390.9882      0.016650271       201702   1400.4568    
     63000   1413.2547      0.016918823       201702   1445.9622    
     64000   1435.5383      0.017187376       201702   1492.1922    
     65000   1457.9654      0.017455929       201702   1539.1211    
     66000   1480.2005      0.017724482       201702   1586.7683    
     67000   1502.2305      0.017993034       201702   1635.1652    
     68000   1524.5035      0.018261587       201702   1684.3028    
     69000   1546.7331      0.01853014        201702   1734.1419    
     70000   1569.0748      0.018798693       201702   1784.7153    
     71000   1591.7038      0.019067246       201702   1836.0196    
     72000   1613.9916      0.019335798       201702   1888.0448    
     73000   1636.3669      0.019604351       201702   1940.7875    
     74000   1658.685       0.019872904       201702   1994.2541    
     75000   1680.9544      0.020141457       201702   2048.4408    
     76000   1703.4595      0.020410009       201702   2103.3591    
     77000   1725.7561      0.020678562       201702   2158.9503    
     78000   1747.9435      0.020947115       201702   2215.3415    
     79000   1770.1797      0.021215668       201702   2272.4114    
     80000   1792.3906      0.02148422        201702   2330.2139    
     81000   1814.657       0.021752773       201702   2388.7559    
     82000   1837.0021      0.022021326       201702   2447.9798    
     83000   1859.3171      0.022289879       201702   2507.9527    
     84000   1881.8456      0.022558431       201702   2568.6446    
     85000   1904.088       0.022826984       201702   2630.0174    
     86000   1926.6568      0.023095537       201702   2692.072     
     87000   1948.9668      0.02336409        201702   2754.9047    
     88000   1971.2012      0.023632642       201702   2818.4599    
     89000   1993.608       0.023901195       201702   2882.7738    
     90000   2015.8782      0.024169748       201702   2947.7092    
     91000   2038.3215      0.024438301       201702   3013.5205    
     92000   2060.7549      0.024706853       201702   3079.947     
     93000   2082.9455      0.024975406       201702   3147.1053    
     94000   2105.0763      0.025243959       201702   3214.9791    
     95000   2127.4132      0.025512512       201702   3283.5857    
     96000   2149.7867      0.025781064       201702   3352.8973    
     97000   2172.247       0.026049617       201702   3422.938     
     98000   2194.442       0.02631817        201702   3493.698     
     99000   2216.7939      0.026586723       201702   3565.127     
    100000   2239.1929      0.026855275       201702   3637.3232    
    101000   2261.6336      0.027123828       201702   3710.1214    
    102000   2284.0138      0.027392381       201702   3783.7232    
    103000   2306.3781      0.027660934       201702   3858.0453    
    104000   2328.7745      0.027929486       201702   3933.0307    
    105000   2351.1873      0.028198039       201702   4008.8137    
    106000   2373.7475      0.028466592       201702   4085.3601    
    107000   2396.0604      0.028735145       201702   4162.4459    
    108000   2418.3397      0.029003697       201702   4240.3339    
    109000   2440.6961      0.02927225        201702   4318.9508    
    110000   2463.0764      0.029540803       201702   4398.3459    
    111000   2485.5156      0.029809356       201702   4478.4214    
    112000   2507.7842      0.030077908       201702   4559.2374    
    113000   2529.9639      0.030346461       201702   4640.6494    
    114000   2552.4504      0.030615014       201702   4722.8524    
    115000   2574.8331      0.030883567       201702   4805.7962    
    116000   2597.2971      0.031152119       201702   4889.4378    
    117000   2619.7581      0.031420672       201702   4973.6129    
    118000   2641.9855      0.031689225       201702   5058.7539    
    119000   2664.3467      0.031957778       201702   5144.4969    
    120000   2686.7237      0.03222633        201702   5231.0469    
    121000   2709.1181      0.032494883       201702   5318.1886    
    122000   2731.2758      0.032763436       201702   5406.0166    
    123000   2753.3349      0.033031989       201702   5494.6354    
    124000   2775.6529      0.033300541       201702   5583.8816    
    125000   2797.8853      0.033569094       201702   5673.8266    
    126000   2820.2765      0.033837647       201702   5764.679     
    127000   2842.4851      0.0341062         201702   5856.0854    
    128000   2864.7678      0.034374752       201702   5948.1992    
    129000   2887.0013      0.034643305       201702   6041.2077    
    130000   2909.832       0.034911858       201702   6134.7601    
    131000   2932.3907      0.035180411       201702   6228.9151    
    132000   2954.6526      0.035448963       201702   6324.0541    
    133000   2976.9953      0.035717516       201702   6419.5376    
    134000   2999.4017      0.035986069       201702   6516.119     
    135000   3021.6796      0.036254622       201702   6612.8866    
    136000   3044.2281      0.036523174       201702   6710.892     
    137000   3066.6595      0.036791727       201702   6809.2889    
    138000   3088.8857      0.03706028        201702   6908.4528    
    139000   3111.3359      0.037328833       201702   7008.4565    
    140000   3133.91        0.037597385       201702   7108.9385    
    141000   3156.2935      0.037865938       201702   7210.4804    
    142000   3178.6628      0.038134491       201702   7312.4244    
    143000   3200.9747      0.038403044       201702   7415.1087    
    144000   3223.1933      0.038671597       201702   7518.4869    
    145000   3245.6737      0.038940149       201702   7622.6999    
    146000   3268.4264      0.039208702       201702   7727.8132    
    147000   3290.9553      0.039477255       201702   7833.1562    
    148000   3313.1763      0.039745808       201702   7939.3688    
    149000   3335.5709      0.04001436        201702   8046.4322    
    150000   3358.0033      0.040282913       201702   8154.142     
    151000   3380.3713      0.040551466       201702   8262.3134    
    152000   3402.7083      0.040820019       201702   8371.5404    
    153000   3425.1386      0.041088571       201702   8481.4121    
    154000   3447.4191      0.041357124       201702   8591.5133    
    155000   3469.7803      0.041625677       201702   8702.8723    
    156000   3492.2598      0.04189423        201702   8814.7539    
    157000   3514.4979      0.042162782       201702   8927.4741    
    158000   3536.9016      0.042431335       201702   9040.3259    
    159000   3559.2039      0.042699888       201702   9154.5162    
    160000   3581.6565      0.042968441       201702   9269.2369    
    161000   3604.2927      0.043236993       201702   9384.6189    
    162000   3626.6313      0.043505546       201702   9500.5609    
    163000   3648.8288      0.043774099       201702   9617.0981    
    164000   3670.9143      0.044042652       201702   9734.3071    
    165000   3693.2995      0.044311204       201702   9852.5491    
    166000   3715.8864      0.044579757       201702   9971.3248    
    167000   3738.1137      0.04484831        201702   10090.91     
    168000   3760.3533      0.045116863       201702   10211.139    
    169000   3782.699       0.045385415       201702   10331.569    
    170000   3804.9766      0.045653968       201702   10453.672    
    171000   3827.4289      0.045922521       201702   10575.608    
    172000   3849.8465      0.046191074       201702   10698.535    
    173000   3872.2594      0.046459626       201702   10822.14     
    174000   3894.6408      0.046728179       201702   10945.961    
    175000   3917.0864      0.046996732       201702   11071.101    
    176000   3939.7206      0.047265285       201702   11196.702    
    177000   3962.0142      0.047533837       201702   11322.768    
    178000   3984.2479      0.04780239        201702   11450.128    
    179000   4006.5624      0.048070943       201702   11577.649    
    180000   4028.8865      0.048339496       201702   11705.736    
    181000   4051.4536      0.048608048       201702   11835.202    
    182000   4073.861       0.048876601       201702   11964.647    
    183000   4096.2351      0.049145154       201702   12095.221    
    184000   4118.4689      0.049413707       201702   12225.925    
    185000   4140.8623      0.049682259       201702   12358.221    
    186000   4163.2176      0.049950812       201702   12490.417    
    187000   4185.685       0.050219365       201702   12622.882    
    188000   4208.0931      0.050487918       201702   12756.904    
    189000   4230.5204      0.05075647        201702   12891.824    
    190000   4253.0071      0.051025023       201702   13027.166    
    191000   4275.3312      0.051293576       201702   13162.964    
    192000   4297.759       0.051562129       201702   13299.375    
    193000   4320.1442      0.051830681       201702   13436.052    
    194000   4342.638       0.052099234       201702   13574.321    
    195000   4365.0331      0.052367787       201702   13712.845    
    196000   4387.4684      0.05263634        201702   13852.188    
    197000   4409.7976      0.052904892       201702   13992.337    
    198000   4432.081       0.053173445       201702   14132.904    
    199000   4454.6029      0.053441998       201702   14273.945    
    200000   4477.1779      0.053710551       201702   14415.656    
    201000   4499.7353      0.053979103       201702   14558.509    
    202000   4522.0946      0.054247656       201702   14700.816    
    203000   4544.4531      0.054516209       201702   14845.419    
    204000   4566.7863      0.054784762       201702   14989.442    
    205000   4589.1614      0.055053314       201702   15134.878    
    206000   4611.7583      0.055321867       201702   15281.234    
    207000   4634.1962      0.05559042        201702   15428.242    
    208000   4656.5359      0.055858973       201702   15575.291    
    209000   4678.9304      0.056127525       201702   15722.864    
    210000   4701.4026      0.056396078       201702   15871.802    
    211000   4724.0988      0.056664631       201702   16020.599    
    212000   4746.5369      0.056933184       201702   16170.527    
    213000   4768.8732      0.057201737       201702   16321.15     
    214000   4791.1257      0.057470289       201702   16471.902    
    215000   4813.3821      0.057738842       201702   16624.689    
    216000   4836.1375      0.058007395       201702   16777.346    
    217000   4858.6663      0.058275948       201702   16930.546    
    218000   4881.0747      0.0585445         201702   17084.393    
    219000   4903.4789      0.058813053       201702   17239.449    
    220000   4925.6644      0.059081606       201702   17393.975    
    221000   4948.2212      0.059350159       201702   17549.578    
    222000   4970.6494      0.059618711       201702   17705.829    
    223000   4993.2233      0.059887264       201702   17863.696    
    224000   5015.6524      0.060155817       201702   18020.458    
    225000   5038.1146      0.06042437        201702   18178.981    
    226000   5060.686       0.060692922       201702   18338.47     
    227000   5082.9799      0.060961475       201702   18498.661    
    228000   5105.4325      0.061230028       201702   18658.476    
    229000   5127.7883      0.061498581       201702   18819.182    
    230000   5150.248       0.061767133       201702   18981.49     
    231000   5172.8794      0.062035686       201702   19144.565    
    232000   5195.3344      0.062304239       201702   19305.66     
    233000   5217.6949      0.062572792       201702   19470.271    
    234000   5240.0187      0.062841344       201702   19634.856    
    235000   5262.4988      0.063109897       201702   19799.987    
    236000   5285.0878      0.06337845        201702   19965.531    
    237000   5307.7443      0.063647003       201702   20131.786    
    238000   5330.1946      0.063915555       201702   20299.874    
    239000   5352.489       0.064184108       201702   20466.431    
    240000   5374.8748      0.064452661       201702   20634.342    
    241000   5397.548       0.064721214       201702   20803.197    
    242000   5420.0514      0.064989766       201702   20972.748    
    243000   5442.3857      0.065258319       201702   21142.878    
    244000   5464.7809      0.065526872       201702   21313.797    
    245000   5487.122       0.065795425       201702   21484.509    
    246000   5509.8781      0.066063977       201702   21657.226    
    247000   5532.2548      0.06633253        201702   21830.392    
    248000   5554.8603      0.066601083       201702   22003.456    
    249000   5577.4675      0.066869636       201702   22178.03     
    250000   5599.959       0.067138188       201702   22351.636    
    251000   5622.6984      0.067406741       201702   22528.125    
    252000   5644.9728      0.067675294       201702   22703.457    
    253000   5667.4095      0.067943847       201702   22879.44     
    254000   5689.8685      0.068212399       201702   23057.865    
    255000   5712.3314      0.068480952       201702   23235.024    
    256000   5734.9159      0.068749505       201702   23413.09     
    257000   5757.3401      0.069018058       201702   23591.315    
    258000   5779.8387      0.06928661        201702   23771.855    
    259000   5802.3384      0.069555163       201702   23952.503    
    260000   5824.8009      0.069823716       201702   24133.497    
    261000   5847.3113      0.070092269       201702   24315.353    
    262000   5869.7221      0.070360821       201702   24496.743    
    263000   5892.2166      0.070629374       201702   24680.347    
    264000   5914.6854      0.070897927       201702   24864.035    
    265000   5937.1632      0.07116648        201702   25047.888    
    266000   5959.7841      0.071435032       201702   25233.774    
    267000   5982.2163      0.071703585       201702   25418.717    
    268000   6004.7316      0.071972138       201702   25605.418    
    269000   6027.2413      0.072240691       201702   25790.65     
    270000   6049.815       0.072509243       201702   25979.621    
    271000   6072.3734      0.072777796       201702   26167.81     
    272000   6094.9375      0.073046349       201702   26356.942    
    273000   6117.3308      0.073314902       201702   26546.388    
    274000   6139.7933      0.073583454       201702   26734.694    
    275000   6162.2536      0.073852007       201702   26926.889    
    276000   6184.9842      0.07412056        201702   27118.243    
    277000   6207.4386      0.074389113       201702   27309.681    
    278000   6229.9916      0.074657665       201702   27502.284    
    279000   6252.3866      0.074926218       201702   27694.427    
    280000   6274.9669      0.075194771       201702   27887.598    
    281000   6297.581       0.075463324       201702   28081.336    
    282000   6320.044       0.075731876       201702   28277.11     
    283000   6342.5366      0.076000429       201702   28471.419    
    284000   6364.9647      0.076268982       201702   28668.308    
    285000   6387.4985      0.076537535       201702   28864.218    
    286000   6410.1212      0.076806088       201702   29060.765    
    287000   6432.6003      0.07707464        201702   29258.316    
    288000   6454.988       0.077343193       201702   29456.839    
    289000   6477.4965      0.077611746       201702   29656.849    
    290000   6500.1652      0.077880299       201702   29854.804    
    291000   6522.9602      0.078148851       201702   30057.207    
    292000   6545.5386      0.078417404       201702   30257.437    
    293000   6567.9241      0.078685957       201702   30458.693    
    294000   6590.412       0.07895451        201702   30661.738    
    295000   6612.7416      0.079223062       201702   30863.124    
    296000   6635.3899      0.079491615       201702   31066.414    
    297000   6657.7833      0.079760168       201702   31271.192    
    298000   6680.1897      0.080028721       201702   31474.794    
    299000   6702.6691      0.080297273       201702   31681.356    
    300000   6725.3773      0.080565826       201702   31887.015    
    301000   6748.067       0.080834379       201702   32093.28     
    302000   6770.588       0.081102932       201702   32301.082    
    303000   6793.1167      0.081371484       201702   32506.956    
    304000   6815.691       0.081640037       201702   32715.409    
    305000   6838.3193      0.08190859        201702   32923.025    
    306000   6861.0175      0.082177143       201702   33134.864    
    307000   6883.6861      0.082445695       201702   33345.175    
    308000   6906.2941      0.082714248       201702   33553.8      
    309000   6928.8375      0.082982801       201702   33765.844    
    310000   6951.3154      0.083251354       201702   33976.265    
    311000   6974.2011      0.083519906       201702   34188.859    
    312000   6996.9618      0.083788459       201702   34403.295    
    313000   7019.4924      0.084057012       201702   34617.674    
    314000   7042.2603      0.084325565       201702   34830.101    
    315000   7064.8492      0.084594117       201702   35046.496    
    316000   7087.459       0.08486267        201702   35260.249    
    317000   7110.0002      0.085131223       201702   35475.859    
    318000   7132.6239      0.085399776       201702   35693.576    
    319000   7155.2779      0.085668328       201702   35908.902    
    320000   7178.1622      0.085936881       201702   36126.402    
    321000   7200.9536      0.086205434       201702   36346.47     
    322000   7223.5041      0.086473987       201702   36563.308    
    323000   7246.0616      0.086742539       201702   36782.897    
    324000   7268.6092      0.087011092       201702   37001.636    
    325000   7291.2294      0.087279645       201702   37222.811    
    326000   7313.8926      0.087548198       201702   37441.968    
    327000   7336.5436      0.08781675        201702   37663.246    
    328000   7359.222       0.088085303       201702   37885.864    
    329000   7381.8548      0.088353856       201702   38111.283    
    330000   7404.5201      0.088622409       201702   38332.506    
    331000   7427.3216      0.088890961       201702   38558.002    
    332000   7449.8499      0.089159514       201702   38781.191    
    333000   7472.5103      0.089428067       201702   39007.464    
    334000   7495.1267      0.08969662        201702   39230.663    
    335000   7517.7169      0.089965172       201702   39459.394    
    336000   7540.5362      0.090233725       201702   39685.735    
    337000   7563.3243      0.090502278       201702   39912.612    
    338000   7586.2382      0.090770831       201702   40139.725    
    339000   7608.9167      0.091039383       201702   40369.938    
    340000   7631.7247      0.091307936       201702   40599.422    
    341000   7654.5174      0.091576489       201702   40828.928    
    342000   7677.1042      0.091845042       201702   41059.857    
    343000   7699.6299      0.092113594       201702   41289.404    
    344000   7722.4484      0.092382147       201702   41519.834    
    345000   7745.2054      0.0926507         201702   41752.663    
    346000   7767.9934      0.092919253       201702   41983.74     
    347000   7790.7202      0.093187805       201702   42217.716    
    348000   7813.3631      0.093456358       201702   42451.733    
    349000   7835.9724      0.093724911       201702   42684.61     
    350000   7858.6196      0.093993464       201702   42917.993    
    351000   7881.4012      0.094262016       201702   43153.986    
    352000   7904.1814      0.094530569       201702   43389.789    
    353000   7927.0103      0.094799122       201702   43627.137    
    354000   7949.6162      0.095067675       201702   43863.672    
    355000   7972.2247      0.095336228       201702   44100.954    
    356000   7995.072       0.09560478        201702   44339.093    
    357000   8017.7331      0.095873333       201702   44577.372    
    358000   8040.389       0.096141886       201702   44815.877    
    359000   8063.2966      0.096410439       201702   45054.678    
    360000   8086.2788      0.096678991       201702   45293.778    
    361000   8109.2164      0.096947544       201702   45535.191    
    362000   8132.1675      0.097216097       201702   45777.413    
    363000   8155.0144      0.09748465        201702   46017.154    
    364000   8177.8776      0.097753202       201702   46260.399    
    365000   8200.6458      0.098021755       201702   46504.596    
    366000   8223.5086      0.098290308       201702   46747.013    
    367000   8246.1774      0.098558861       201702   46990.067    
    368000   8268.9707      0.098827413       201702   47234.095    
    369000   8291.6845      0.099095966       201702   47479.416    
    370000   8314.5489      0.099364519       201702   47727.546    
    371000   8337.6543      0.099633072       201702   47972.67     
    372000   8360.4352      0.099901624       201702   48218.682    
    373000   8383.1753      0.10017018        201702   48466.32     
    374000   8405.8819      0.10043873        201702   48712.774    
    375000   8428.6007      0.10070728        201702   48961.106    
    376000   8451.5377      0.10097584        201702   49208.628    
    377000   8474.3637      0.10124439        201702   49459.953    
    378000   8497.094       0.10151294        201702   49710.526    
    379000   8519.826       0.10178149        201702   49960.859    
    380000   8542.8032      0.10205005        201702   50213.274    
    381000   8565.6147      0.1023186         201702   50464.256    
    382000   8588.3823      0.10258715        201702   50716.552    
    383000   8611.1743      0.1028557         201702   50969.065    
    384000   8633.9101      0.10312426        201702   51221.343    
    385000   8656.7547      0.10339281        201702   51473.948    
    386000   8679.7625      0.10366136        201702   51732.276    
    387000   8702.5168      0.10392992        201702   51984.414    
    388000   8725.367       0.10419847        201702   52239.883    
    389000   8748.1704      0.10446702        201702   52496.297    
    390000   8771.0078      0.10473557        201702   52752.589    
    391000   8793.9837      0.10500413        201702   53009.723    
    392000   8816.9064      0.10527268        201702   53265.941    
    393000   8839.8867      0.10554123        201702   53525.567    
    394000   8862.5799      0.10580978        201702   53785.735    
    395000   8885.4752      0.10607834        201702   54044.84     
    396000   8908.5097      0.10634689        201702   54301.908    
    397000   8931.2777      0.10661544        201702   54563.377    
    398000   8954.1033      0.106884          201702   54823.32     
    399000   8977.1564      0.10715255        201702   55083.511    
    400000   9000.1034      0.1074211         201702   55345.352    
    401000   9023.1632      0.10768965        201702   55607.749    
    402000   9045.972       0.10795821        201702   55868.936    
    403000   9068.8469      0.10822676        201702   56134.37     
    404000   9091.6624      0.10849531        201702   56396.61     
    405000   9114.5689      0.10876387        201702   56659.892    
    406000   9137.584       0.10903242        201702   56922.176    
    407000   9160.4183      0.10930097        201702   57188.994    
    408000   9183.281       0.10956952        201702   57453.903    
    409000   9206.1881      0.10983808        201702   57720.285    
    410000   9229.1574      0.11010663        201702   57984.064    
    411000   9252.1575      0.11037518        201702   58251.454    
    412000   9275.1704      0.11064373        201702   58518.745    
    413000   9298.1128      0.11091229        201702   58788.732    
    414000   9321.0196      0.11118084        201702   59054.075    
    415000   9343.8751      0.11144939        201702   59323.37     
    416000   9367.0196      0.11171795        201702   59591.724    
    417000   9389.934       0.1119865         201702   59861.848    
    418000   9412.8813      0.11225505        201702   60132.518    
    419000   9435.7846      0.1125236         201702   60400.923    
    420000   9458.7332      0.11279216        201702   60672.574    
    421000   9481.8148      0.11306071        201702   60943.592    
    422000   9504.792       0.11332926        201702   61217.447    
    423000   9527.7278      0.11359781        201702   61487.398    
    424000   9550.6362      0.11386637        201702   61761.27     
    425000   9573.5525      0.11413492        201702   62033.974    
    426000   9596.523       0.11440347        201702   62308.797    
    427000   9619.4896      0.11467203        201702   62584.017    
    428000   9642.4605      0.11494058        201702   62857.265    
    429000   9665.3128      0.11520913        201702   63132.005    
    430000   9688.2996      0.11547768        201702   63406.6      
    431000   9711.3862      0.11574624        201702   63684.576    
    432000   9734.4542      0.11601479        201702   63961.084    
    433000   9757.5746      0.11628334        201702   64236.844    
    434000   9780.6571      0.1165519         201702   64513.355    
    435000   9803.5722      0.11682045        201702   64795.262    
    436000   9826.6973      0.117089          201702   65072.229    
    437000   9849.7512      0.11735755        201702   65349.921    
    438000   9872.8616      0.11762611        201702   65627.989    
    439000   9895.9707      0.11789466        201702   65910.095    
    440000   9918.9859      0.11816321        201702   66190.56     
    441000   9942.1053      0.11843176        201702   66468.738    
    442000   9965.1501      0.11870032        201702   66752.293    
    443000   9988.1078      0.11896887        201702   67034.535    
    444000   10011.273      0.11923742        201702   67315.663    
    445000   10034.247      0.11950598        201702   67594.377    
    446000   10057.436      0.11977453        201702   67882.502    
    447000   10080.492      0.12004308        201702   68163.952    
    448000   10103.62       0.12031163        201702   68447.08     
    449000   10126.578      0.12058019        201702   68733.538    
    450000   10149.762      0.12084874        201702   69018.198    
    451000   10173.035      0.12111729        201702   69303.849    
    452000   10196.232      0.12138584        201702   69589.834    
    453000   10219.257      0.1216544         201702   69873.301    
    454000   10242.289      0.12192295        201702   70162.066    
    455000   10265.255      0.1221915         201702   70448.508    
    456000   10288.568      0.12246006        201702   70734.528    
    457000   10311.811      0.12272861        201702   71024.619    
    458000   10334.971      0.12299716        201702   71313.813    
    459000   10358.098      0.12326571        201702   71598.954    
    460000   10381.359      0.12353427        201702   71889.76     
    461000   10404.569      0.12380282        201702   72181.018    
    462000   10427.702      0.12407137        201702   72470.106    
    463000   10450.875      0.12433992        201702   72764.167    
    464000   10473.935      0.12460848        201702   73056.199    
    465000   10497.016      0.12487703        201702   73347.662    
    466000   10520.251      0.12514558        201702   73640.439    
    467000   10543.343      0.12541414        201702   73930.897    
    468000   10566.452      0.12568269        201702   74224.771    
    469000   10589.65       0.12595124        201702   74515.696    
    470000   10612.915      0.12621979        201702   74812.645    
    471000   10636.149      0.12648835        201702   75107.503    
    472000   10659.366      0.1267569         201702   75402.367    
    473000   10682.531      0.12702545        201702   75697.884    
    474000   10705.66       0.12729401        201702   75995.78     
    475000   10728.728      0.12756256        201702   76289.352    
    476000   10751.945      0.12783111        201702   76583.827    
    477000   10775.037      0.12809966        201702   76880.64     
    478000   10798.353      0.12836822        201702   77177.494    
    479000   10821.599      0.12863677        201702   77475.835    
    480000   10844.882      0.12890532        201702   77772.816    
    481000   10868.275      0.12917387        201702   78070.825    
    482000   10891.479      0.12944243        201702   78370.201    
    483000   10914.743      0.12971098        201702   78671.205    
    484000   10938.005      0.12997953        201702   78970.396    
    485000   10961.228      0.13024809        201702   79267.419    
    486000   10984.656      0.13051664        201702   79570.391    
    487000   11008          0.13078519        201702   79869.716    
    488000   11031.23       0.13105374        201702   80168.103    
    489000   11054.521      0.1313223         201702   80469.529    
    490000   11078.04       0.13159085        201702   80769.462    
    491000   11101.455      0.1318594         201702   81073.145    
    492000   11124.849      0.13212795        201702   81376.557    
    493000   11148.084      0.13239651        201702   81678.442    
    494000   11171.513      0.13266506        201702   81981.175    
    495000   11194.869      0.13293361        201702   82284.583    
    496000   11218.365      0.13320217        201702   82588.405    
    497000   11241.738      0.13347072        201702   82893.796    
    498000   11264.955      0.13373927        201702   83203.673    
    499000   11288.302      0.13400782        201702   83504.994    
    500000   11311.769      0.13427638        201702   83810.412    
Loop time of 11312 on 4 procs for 500000 steps with 201702 atoms

264.0% CPU use with 1 MPI tasks x 4 OpenMP threads

MPI task timing breakdown:
Section |  min time  |  avg time  |  max time  |%varavg| %total
---------------------------------------------------------------
Pair    | 4273.6     | 4273.6     | 4273.6     |   0.0 | 37.78
Neigh   | 1.1207     | 1.1207     | 1.1207     |   0.0 |  0.01
Comm    | 2.4357     | 2.4357     | 2.4357     |   0.0 |  0.02
Output  | 15.905     | 15.905     | 15.905     |   0.0 |  0.14
Modify  | 6282.3     | 6282.3     | 6282.3     |   0.0 | 55.54
Other   |            | 736.6      |            |       |  6.51

Nlocal:         201702 ave      201702 max      201702 min
Histogram: 1 0 0 0 0 0 0 0 0 0
Nghost:              0 ave           0 max           0 min
Histogram: 1 0 0 0 0 0 0 0 0 0
Neighs:         823119 ave      823119 max      823119 min
Histogram: 1 0 0 0 0 0 0 0 0 0

Total # of neighbors = 823119
Ave neighs/atom = 4.0808668
Neighbor list builds = 56
Dangerous builds = 0
run		${interval}
run		500000
Generated 0 of 0 mixed pair_coeff terms from geometric mixing rule
Last active /omp style is pair_style gran/hertz/history/omp
Per MPI rank memory allocation (min/avg/max) = 189.1 | 189.1 | 189.1 Mbytes
   Step          CPU            Time         Atoms        KinEng    
    500000   0              0.13427638        201702   83810.412    
    501000   23.324717      0.13454493        201702   84117.594    
    502000   46.657456      0.13481348        201702   84423.318    
    503000   69.994031      0.13508204        201702   84732.06     
    504000   93.385379      0.13535059        201702   85039.999    
    505000   116.73921      0.13561914        201702   85349.397    
    506000   140.32901      0.13588769        201702   85656.083    
    507000   163.69193      0.13615625        201702   85965.962    
    508000   187.05893      0.1364248         201702   86272.537    
    509000   210.63227      0.13669335        201702   86582.555    
    510000   234.0521       0.1369619         201702   86889.866    
    511000   257.55724      0.13723046        201702   87198.917    
    512000   280.99958      0.13749901        201702   87508.517    
    513000   304.40511      0.13776756        201702   87816.123    
    514000   327.90107      0.13803612        201702   88129.302    
    515000   351.26041      0.13830467        201702   88441.596    
    516000   374.79143      0.13857322        201702   88750.523    
    517000   398.22615      0.13884177        201702   89064.795    
    518000   421.72133      0.13911033        201702   89377.774    
    519000   445.30888      0.13937888        201702   89689.001    
    520000   468.81984      0.13964743        201702   90001.948    
    521000   492.46895      0.13991598        201702   90318.14     
    522000   515.90126      0.14018454        201702   90628.865    
    523000   539.34731      0.14045309        201702   90946.349    
    524000   562.81559      0.14072164        201702   91257.105    
    525000   586.25625      0.1409902         201702   91569.888    
    526000   609.89528      0.14125875        201702   91886.488    
    527000   633.40023      0.1415273         201702   92199.186    
    528000   656.96836      0.14179585        201702   92518.586    
    529000   680.47197      0.14206441        201702   92832.368    
    530000   703.99733      0.14233296        201702   93148.617    
    531000   727.57044      0.14260151        201702   93463.904    
    532000   751.11427      0.14287006        201702   93775.356    
    533000   774.6122       0.14313862        201702   94093.937    
    534000   798.15452      0.14340717        201702   94410.495    
    535000   821.67774      0.14367572        201702   94730.402    
    536000   845.38146      0.14394428        201702   95046.555    
    537000   868.82479      0.14421283        201702   95367.703    
    538000   892.42423      0.14448138        201702   95684.039    
    539000   916.0391       0.14474993        201702   96001.476    
    540000   939.61824      0.14501849        201702   96323.49     
    541000   963.42893      0.14528704        201702   96639.878    
    542000   987.06601      0.14555559        201702   96963.9      
    543000   1010.7124      0.14582415        201702   97282.151    
    544000   1034.3438      0.1460927         201702   97604.077    
    545000   1057.9727      0.14636125        201702   97924.707    
    546000   1081.758       0.1466298         201702   98244.859    
    547000   1105.2841      0.14689836        201702   98569.424    
    548000   1128.919       0.14716691        201702   98890.258    
    549000   1152.54        0.14743546        201702   99213.177    
    550000   1176.2719      0.14770401        201702   99536.271    
    551000   1200.1159      0.14797257        201702   99852.385    
    552000   1223.7532      0.14824112        201702   100179.04    
    553000   1247.4344      0.14850967        201702   100497.89    
    554000   1271.064       0.14877823        201702   100824.68    
    555000   1294.8283      0.14904678        201702   101148.04    
    556000   1318.668       0.14931533        201702   101467.11    
    557000   1342.3599      0.14958388        201702   101796.68    
    558000   1366.097       0.14985244        201702   102121.26    
    559000   1389.7438      0.15012099        201702   102447.15    
    560000   1413.504       0.15038954        201702   102768.21    
    561000   1437.3496      0.15065809        201702   103093.58    
    562000   1461.1643      0.15092665        201702   103420       
    563000   1484.9494      0.1511952         201702   103742.98    
    564000   1508.639       0.15146375        201702   104067.61    
    565000   1532.399       0.15173231        201702   104391.99    
    566000   1556.1904      0.15200086        201702   104720.35    
    567000   1579.9796      0.15226941        201702   105047.14    
    568000   1603.7954      0.15253796        201702   105372.04    
    569000   1627.6238      0.15280652        201702   105701.78    
    570000   1651.5285      0.15307507        201702   106028.14    
    571000   1675.384       0.15334362        201702   106356.88    
    572000   1699.2252      0.15361218        201702   106682.62    
    573000   1723.0996      0.15388073        201702   107013.43    
    574000   1746.9333      0.15414928        201702   107343.52    
    575000   1770.7068      0.15441783        201702   107673.96    
    576000   1794.6977      0.15468639        201702   108003.18    
    577000   1818.5391      0.15495494        201702   108337.94    
    578000   1842.5528      0.15522349        201702   108664.27    
    579000   1866.4294      0.15549204        201702   108994.08    
    580000   1890.3705      0.1557606         201702   109325.8     
    581000   1914.5225      0.15602915        201702   109660.29    
    582000   1938.4058      0.1562977         201702   109988.46    
    583000   1962.3189      0.15656626        201702   110322.26    
    584000   1986.2325      0.15683481        201702   110652.29    
    585000   2010.1555      0.15710336        201702   110986.49    
    586000   2034.3183      0.15737191        201702   111326.98    
    587000   2058.1607      0.15764047        201702   111657.56    
    588000   2082.028       0.15790902        201702   111989.6     
    589000   2106.0517      0.15817757        201702   112325.6     
    590000   2130.1237      0.15844612        201702   112654.12    
    591000   2154.1394      0.15871468        201702   112998.27    
    592000   2178.0819      0.15898323        201702   113324.75    
    593000   2202.0522      0.15925178        201702   113656.61    
    594000   2226.0885      0.15952034        201702   113997.78    
    595000   2250.0785      0.15978889        201702   114334.23    
    596000   2274.1751      0.16005744        201702   114666.97    
    597000   2298.35        0.16032599        201702   114995.63    
    598000   2322.441       0.16059455        201702   115338.78    
    599000   2346.5527      0.1608631         201702   115677.38    
    600000   2370.6979      0.16113165        201702   116010.01    
    601000   2394.9335      0.1614002         201702   116348.32    
    602000   2418.8539      0.16166876        201702   116681.42    
    603000   2443.0484      0.16193731        201702   117013.95    
    604000   2467.1474      0.16220586        201702   117355.77    
    605000   2491.2156      0.16247442        201702   117690.25    
    606000   2515.3436      0.16274297        201702   118026.5     
    607000   2539.5096      0.16301152        201702   118362.12    
    608000   2563.6623      0.16328007        201702   118697.61    
    609000   2587.7243      0.16354863        201702   119035.42    
    610000   2612.0315      0.16381718        201702   119371.19    
    611000   2636.3446      0.16408573        201702   119712.64    
    612000   2660.433       0.16435429        201702   120051.08    
    613000   2684.7272      0.16462284        201702   120389.87    
    614000   2708.9382      0.16489139        201702   120727.98    
    615000   2733.1707      0.16515994        201702   121061       
    616000   2757.6754      0.1654285         201702   121403.76    
    617000   2781.8861      0.16569705        201702   121744.43    
    618000   2806.1538      0.1659656         201702   122082.01    
    619000   2830.5114      0.16623415        201702   122421.44    
    620000   2854.9433      0.16650271        201702   122762.85    
    621000   2879.4131      0.16677126        201702   123101.53    
    622000   2903.6512      0.16703981        201702   123441.14    
    623000   2928.0155      0.16730837        201702   123780.34    
    624000   2952.289       0.16757692        201702   124118.45    
    625000   2976.6055      0.16784547        201702   124466.01    
    626000   3001.0396      0.16811402        201702   124806.49    
    627000   3025.3619      0.16838258        201702   125146.94    
    628000   3049.7885      0.16865113        201702   125488.54    
    629000   3074.0676      0.16891968        201702   125824.18    
    630000   3098.4657      0.16918823        201702   126167.28    
    631000   3122.9929      0.16945679        201702   126508.63    
    632000   3147.4205      0.16972534        201702   126846.18    
    633000   3171.7574      0.16999389        201702   127193.11    
    634000   3196.2036      0.17026245        201702   127539.73    
    635000   3220.5512      0.170531          201702   127878.53    
    636000   3245.096       0.17079955        201702   128220.1     
    637000   3269.5333      0.1710681         201702   128565.5     
    638000   3293.9839      0.17133666        201702   128903.26    
    639000   3318.3707      0.17160521        201702   129248.61    
    640000   3342.9482      0.17187376        201702   129600.46    
    641000   3367.6155      0.17214232        201702   129942.61    
    642000   3392.0475      0.17241087        201702   130280.81    
    643000   3416.5503      0.17267942        201702   130624.66    
    644000   3441.0496      0.17294797        201702   130967.6     
    645000   3465.5011      0.17321653        201702   131304.85    
    646000   3490.0937      0.17348508        201702   131655.2     
    647000   3514.6559      0.17375363        201702   132000.33    
    648000   3539.2343      0.17402218        201702   132339.68    
    649000   3563.7263      0.17429074        201702   132692.78    
    650000   3588.3395      0.17455929        201702   133031.8     
    651000   3613.0126      0.17482784        201702   133378.61    
    652000   3637.6136      0.1750964         201702   133721.99    
    653000   3662.1099      0.17536495        201702   134069.18    
    654000   3686.7041      0.1756335         201702   134417.89    
    655000   3711.2533      0.17590205        201702   134761       
    656000   3736.13        0.17617061        201702   135107.96    
    657000   3760.8434      0.17643916        201702   135456.77    
    658000   3785.4232      0.17670771        201702   135796.28    
    659000   3810.0599      0.17697626        201702   136147.95    
    660000   3834.7666      0.17724482        201702   136499.16    
    661000   3859.4937      0.17751337        201702   136841.22    
    662000   3884.1469      0.17778192        201702   137190.12    
    663000   3908.957       0.17805048        201702   137541.72    
    664000   3933.6296      0.17831903        201702   137887.85    
    665000   3958.3486      0.17858758        201702   138232.54    
    666000   3983.1676      0.17885613        201702   138579.39    
    667000   4007.9464      0.17912469        201702   138919.29    
    668000   4032.6084      0.17939324        201702   139270.39    
    669000   4057.3204      0.17966179        201702   139609.66    
    670000   4082.1845      0.17993034        201702   139969.98    
    671000   4107.0202      0.1801989         201702   140305.94    
    672000   4131.8385      0.18046745        201702   140655.42    
    673000   4156.6377      0.180736          201702   140999.5     
    674000   4181.4224      0.18100456        201702   141345.79    
    675000   4206.2371      0.18127311        201702   141696.92    
    676000   4231.2761      0.18154166        201702   142041.11    
    677000   4256.2058      0.18181021        201702   142391.25    
    678000   4281.0987      0.18207877        201702   142741.36    
    679000   4306.0486      0.18234732        201702   143087.68    
    680000   4330.9343      0.18261587        201702   143437.36    
    681000   4356.039       0.18288443        201702   143788.15    
    682000   4380.9157      0.18315298        201702   144136.19    
    683000   4405.8362      0.18342153        201702   144486.6     
    684000   4430.6515      0.18369008        201702   144823.79    
    685000   4455.6326      0.18395864        201702   145182       
    686000   4480.7273      0.18422719        201702   145523.91    
    687000   4505.764       0.18449574        201702   145877.82    
    688000   4530.6388      0.18476429        201702   146223.14    
    689000   4555.6935      0.18503285        201702   146576.69    
    690000   4580.7229      0.1853014         201702   146921.32    
    691000   4605.7723      0.18556995        201702   147279.41    
    692000   4630.7769      0.18583851        201702   147623.04    
    693000   4655.7764      0.18610706        201702   147971.58    
    694000   4680.7901      0.18637561        201702   148318.26    
    695000   4705.8055      0.18664416        201702   148669.32    
    696000   4731.0149      0.18691272        201702   149021.29    
    697000   4756.1095      0.18718127        201702   149375.39    
    698000   4781.1824      0.18744982        201702   149722.12    
    699000   4806.3676      0.18771837        201702   150071.96    
    700000   4831.494       0.18798693        201702   150425.15    
    701000   4856.7794      0.18825548        201702   150772.01    
    702000   4881.8898      0.18852403        201702   151119.2     
    703000   4907.0616      0.18879259        201702   151473.98    
    704000   4932.1658      0.18906114        201702   151822.49    
    705000   4957.2562      0.18932969        201702   152175.92    
    706000   4982.6037      0.18959824        201702   152530.24    
    707000   5007.9621      0.1898668         201702   152873.14    
    708000   5033.1363      0.19013535        201702   153228.48    
    709000   5058.3551      0.1904039         201702   153584.93    
    710000   5083.5842      0.19067246        201702   153930.07    
    711000   5108.9763      0.19094101        201702   154283.15    
    712000   5134.2138      0.19120956        201702   154626.87    
    713000   5159.3938      0.19147811        201702   154976.03    
    714000   5184.7615      0.19174667        201702   155326.96    
    715000   5210.0849      0.19201522        201702   155673.18    
    716000   5235.6294      0.19228377        201702   156027.11    
    717000   5260.8414      0.19255232        201702   156379.47    
    718000   5286.1778      0.19282088        201702   156734.95    
    719000   5311.5425      0.19308943        201702   157078.2     
    720000   5337.0475      0.19335798        201702   157431.54    
    721000   5362.5881      0.19362654        201702   157783.27    
    722000   5387.9974      0.19389509        201702   158137.69    
    723000   5413.3613      0.19416364        201702   158482.54    
    724000   5438.7265      0.19443219        201702   158844.67    
    725000   5464.1894      0.19470075        201702   159188.37    
    726000   5489.7828      0.1949693         201702   159542       
    727000   5515.1936      0.19523785        201702   159897.81    
    728000   5540.5996      0.1955064         201702   160243.18    
    729000   5566.0607      0.19577496        201702   160590.35    
    730000   5591.4954      0.19604351        201702   160948.37    
    731000   5617.1109      0.19631206        201702   161299.74    
    732000   5642.5758      0.19658062        201702   161653.58    
    733000   5668.0899      0.19684917        201702   161997.41    
    734000   5693.5814      0.19711772        201702   162351.47    
    735000   5719.0954      0.19738627        201702   162698.57    
    736000   5744.781       0.19765483        201702   163046.72    
    737000   5770.391       0.19792338        201702   163388.99    
    738000   5796.0295      0.19819193        201702   163735.03    
    739000   5821.7096      0.19846048        201702   164094.9     
    740000   5847.3933      0.19872904        201702   164429.6     
    741000   5873.0828      0.19899759        201702   164784.05    
    742000   5898.7404      0.19926614        201702   165129.43    
    743000   5924.3848      0.1995347         201702   165484.24    
    744000   5950.0642      0.19980325        201702   165822.78    
    745000   5975.689       0.2000718         201702   166179.77    
    746000   6001.6298      0.20034035        201702   166531.16    
    747000   6027.4285      0.20060891        201702   166878.14    
    748000   6053.0914      0.20087746        201702   167221.92    
    749000   6078.7593      0.20114601        201702   167579.41    
    750000   6104.4845      0.20141457        201702   167930.23    
    751000   6130.3364      0.20168312        201702   168285.25    
    752000   6156.1545      0.20195167        201702   168632.46    
    753000   6181.8524      0.20222022        201702   168975.92    
    754000   6207.6392      0.20248878        201702   169327.93    
    755000   6233.5818      0.20275733        201702   169677.56    
    756000   6259.544       0.20302588        201702   170021.02    
    757000   6285.3675      0.20329443        201702   170375.96    
    758000   6311.146       0.20356299        201702   170715.07    
    759000   6337.019       0.20383154        201702   171060.38    
    760000   6362.9735      0.20410009        201702   171415.99    
    761000   6388.9945      0.20436865        201702   171745.6     
    762000   6414.8114      0.2046372         201702   172102.81    
    763000   6440.655       0.20490575        201702   172439.9     
    764000   6466.5368      0.2051743         201702   172787.8     
    765000   6492.4455      0.20544286        201702   173139.93    
    766000   6518.581       0.20571141        201702   173486.06    
    767000   6544.5492      0.20597996        201702   173831.49    
    768000   6570.5083      0.20624851        201702   174174.06    
    769000   6596.5131      0.20651707        201702   174517.13    
    770000   6622.5894      0.20678562        201702   174863.3     
    771000   6648.7071      0.20705417        201702   175216       
    772000   6674.8222      0.20732273        201702   175545.15    
    773000   6700.8875      0.20759128        201702   175889.5     
    774000   6727.0042      0.20785983        201702   176235.53    
    775000   6753.144       0.20812838        201702   176586.55    
    776000   6779.5052      0.20839694        201702   176929.55    
    777000   6805.623       0.20866549        201702   177271.4     
    778000   6831.7303      0.20893404        201702   177607.46    
    779000   6857.8531      0.2092026         201702   177962.01    
    780000   6884.1605      0.20947115        201702   178307.8     
    781000   6910.4776      0.2097397         201702   178652.41    
    782000   6936.6485      0.21000825        201702   178987.27    
    783000   6962.9503      0.21027681        201702   179324.5     
    784000   6989.0401      0.21054536        201702   179675.5     
    785000   7015.2573      0.21081391        201702   180007.37    
    786000   7041.7137      0.21108246        201702   180357       
    787000   7068.0228      0.21135102        201702   180701.08    
    788000   7094.355       0.21161957        201702   181039.9     
    789000   7120.6804      0.21188812        201702   181383.33    
    790000   7147.028       0.21215668        201702   181736.09    
    791000   7173.5644      0.21242523        201702   182069.81    
    792000   7199.88        0.21269378        201702   182410.76    
    793000   7226.2118      0.21296233        201702   182764.06    
    794000   7252.6029      0.21323089        201702   183100.99    
    795000   7279.0374      0.21349944        201702   183453.16    
    796000   7305.6864      0.21376799        201702   183794.45    
    797000   7332.0918      0.21403654        201702   184131.81    
    798000   7358.544       0.2143051         201702   184470.39    
    799000   7384.9951      0.21457365        201702   184815.35    
    800000   7411.5478      0.2148422         201702   185152.11    
    801000   7438.228       0.21511076        201702   185485.94    
    802000   7464.8981      0.21537931        201702   185834.51    
    803000   7491.5336      0.21564786        201702   186175.23    
    804000   7518.0277      0.21591641        201702   186518.92    
    805000   7544.5195      0.21618497        201702   186857.27    
    806000   7571.2868      0.21645352        201702   187199.97    
    807000   7597.9141      0.21672207        201702   187532.68    
    808000   7624.4815      0.21699062        201702   187871.87    
    809000   7651.0643      0.21725918        201702   188208.26    
    810000   7677.7545      0.21752773        201702   188549.27    
    811000   7704.5161      0.21779628        201702   188881.76    
    812000   7731.1552      0.21806484        201702   189222.46    
    813000   7757.7628      0.21833339        201702   189551       
    814000   7784.4205      0.21860194        201702   189892.67    
    815000   7811.028       0.21887049        201702   190234.14    
    816000   7837.9482      0.21913905        201702   190563.58    
    817000   7864.7149      0.2194076         201702   190904.22    
    818000   7891.456       0.21967615        201702   191245.82    
    819000   7918.2343      0.21994471        201702   191580.1     
    820000   7945.0867      0.22021326        201702   191910.39    
    821000   7972.1148      0.22048181        201702   192249.48    
    822000   7998.9061      0.22075036        201702   192592.15    
    823000   8025.6389      0.22101892        201702   192921.26    
    824000   8052.54        0.22128747        201702   193248.63    
    825000   8079.4164      0.22155602        201702   193589.15    
    826000   8106.4847      0.22182457        201702   193933.08    
    827000   8133.4295      0.22209313        201702   194262.28    
    828000   8160.2838      0.22236168        201702   194590.73    
    829000   8187.1387      0.22263023        201702   194937.53    
    830000   8214.2117      0.22289879        201702   195261.67    
    831000   8241.3713      0.22316734        201702   195603.64    
    832000   8268.301       0.22343589        201702   195936.95    
    833000   8295.2611      0.22370444        201702   196272.64    
    834000   8322.2242      0.223973          201702   196602.43    
    835000   8349.3184      0.22424155        201702   196927.87    
    836000   8376.6037      0.2245101         201702   197269.71    
    837000   8403.5584      0.22477865        201702   197591.02    
    838000   8430.5998      0.22504721        201702   197925.01    
    839000   8457.6074      0.22531576        201702   198257.79    
    840000   8484.7318      0.22558431        201702   198594.24    
    841000   8511.904       0.22585287        201702   198916.97    
    842000   8539.0086      0.22612142        201702   199250.29    
    843000   8566.0421      0.22638997        201702   199577.06    
    844000   8593.1597      0.22665852        201702   199901.6     
    845000   8620.2839      0.22692708        201702   200236.88    
    846000   8647.5624      0.22719563        201702   200565.3     
    847000   8674.7333      0.22746418        201702   200903.76    
    848000   8701.9187      0.22773274        201702   201223.05    
    849000   8728.9273      0.22800129        201702   201551.52    
    850000   8756.2109      0.22826984        201702   201876.66    
    851000   8783.5932      0.22853839        201702   202208.27    
    852000   8810.8478      0.22880695        201702   202546.58    
    853000   8838.015       0.2290755         201702   202878.29    
    854000   8865.1876      0.22934405        201702   203210.29    
    855000   8892.4746      0.2296126         201702   203527.75    
    856000   8919.8548      0.22988116        201702   203858.55    
    857000   8947.081       0.23014971        201702   204181.07    
    858000   8974.315       0.23041826        201702   204516.45    
    859000   9001.6213      0.23068682        201702   204841.56    
    860000   9029.0528      0.23095537        201702   205169.95    
    861000   9056.5491      0.23122392        201702   205504.42    
    862000   9083.8271      0.23149247        201702   205826.28    
    863000   9111.1168      0.23176103        201702   206159.75    
    864000   9138.3193      0.23202958        201702   206481.08    
    865000   9165.7172      0.23229813        201702   206785.7     
    866000   9193.0802      0.23256668        201702   207108.85    
    867000   9220.3682      0.23283524        201702   207428.44    
    868000   9247.7409      0.23310379        201702   207758.98    
    869000   9275.1074      0.23337234        201702   208084.82    
    870000   9302.5359      0.2336409         201702   208404.01    
    871000   9330.1088      0.23390945        201702   208728.68    
    872000   9357.4186      0.234178          201702   209044.42    
    873000   9384.8131      0.23444655        201702   209365.51    
    874000   9412.1799      0.23471511        201702   209689.19    
    875000   9439.6232      0.23498366        201702   210013.68    
    876000   9467.2615      0.23525221        201702   210323.73    
    877000   9494.5634      0.23552076        201702   210660.13    
    878000   9521.9874      0.23578932        201702   210957.83    
    879000   9549.5067      0.23605787        201702   211296.87    
    880000   9577.0859      0.23632642        201702   211610.94    
    881000   9604.5633      0.23659498        201702   211922.13    
    882000   9631.954       0.23686353        201702   212248.39    
    883000   9659.481       0.23713208        201702   212560.9     
    884000   9687.0127      0.23740063        201702   212878.05    
    885000   9714.5618      0.23766919        201702   213192.84    
    886000   9742.1535      0.23793774        201702   213510.02    
    887000   9769.6582      0.23820629        201702   213820.56    
    888000   9797.1213      0.23847485        201702   214144.85    
    889000   9824.6687      0.2387434         201702   214442.85    
    890000   9852.2868      0.23901195        201702   214756.51    
    891000   9879.9007      0.2392805         201702   215087.79    
    892000   9907.395       0.23954906        201702   215391.48    
    893000   9934.9411      0.23981761        201702   215700.04    
    894000   9962.5106      0.24008616        201702   216003.94    
    895000   9990.0652      0.24035471        201702   216334.67    
    896000   10017.823      0.24062327        201702   216636.85    
    897000   10045.281      0.24089182        201702   216960.6     
    898000   10072.824      0.24116037        201702   217273.57    
    899000   10100.427      0.24142893        201702   217585.09    
    900000   10128.065      0.24169748        201702   217891.8     
    901000   10155.877      0.24196603        201702   218204.98    
    902000   10183.378      0.24223458        201702   218514.82    
    903000   10210.912      0.24250314        201702   218810.44    
    904000   10238.54       0.24277169        201702   219123.34    
    905000   10266.317      0.24304024        201702   219423.28    
    906000   10294.118      0.24330879        201702   219721.17    
    907000   10321.832      0.24357735        201702   220029.39    
    908000   10349.463      0.2438459         201702   220344.45    
    909000   10377.206      0.24411445        201702   220663.74    
    910000   10404.942      0.24438301        201702   220960.41    
    911000   10432.783      0.24465156        201702   221283.21    
    912000   10460.413      0.24492011        201702   221569.35    
    913000   10488.07       0.24518866        201702   221882.03    
    914000   10515.82       0.24545722        201702   222190.58    
    915000   10543.52       0.24572577        201702   222488.84    
    916000   10571.26       0.24599432        201702   222807.13    
    917000   10598.98       0.24626287        201702   223104.65    
    918000   10626.814      0.24653143        201702   223402.04    
    919000   10654.479      0.24679998        201702   223704.58    
    920000   10682.269      0.24706853        201702   224009.45    
    921000   10710.27       0.24733709        201702   224314.06    
    922000   10737.903      0.24760564        201702   224603.35    
    923000   10765.642      0.24787419        201702   224914.21    
    924000   10793.369      0.24814274        201702   225209.59    
    925000   10821.166      0.2484113         201702   225518.21    
    926000   10849.051      0.24867985        201702   225830.17    
    927000   10876.881      0.2489484         201702   226114.51    
    928000   10904.672      0.24921696        201702   226421.97    
    929000   10932.334      0.24948551        201702   226716.98    
    930000   10960.265      0.24975406        201702   227005.34    
    931000   10988.284      0.25002261        201702   227314.38    
    932000   11016.082      0.25029117        201702   227591.1     
    933000   11043.879      0.25055972        201702   227907.73    
    934000   11071.653      0.25082827        201702   228195.98    
    935000   11099.458      0.25109682        201702   228487.75    
    936000   11127.364      0.25136538        201702   228776.65    
    937000   11155.219      0.25163393        201702   229086.7     
    938000   11183.099      0.25190248        201702   229373.49    
    939000   11210.942      0.25217104        201702   229670.76    
    940000   11238.931      0.25243959        201702   229951.79    
    941000   11266.898      0.25270814        201702   230261.12    
    942000   11294.812      0.25297669        201702   230525.66    
    943000   11322.688      0.25324525        201702   230825.07    
    944000   11350.578      0.2535138         201702   231108.77    
    945000   11378.523      0.25378235        201702   231400.86    
    946000   11406.633      0.2540509         201702   231674.1     
    947000   11434.55       0.25431946        201702   231968.4     
    948000   11462.533      0.25458801        201702   232269.82    
    949000   11490.511      0.25485656        201702   232548.86    
    950000   11518.574      0.25512512        201702   232830.01    
    951000   11546.74       0.25539367        201702   233116.57    
    952000   11574.785      0.25566222        201702   233405.15    
    953000   11602.758      0.25593077        201702   233689.53    
    954000   11630.734      0.25619933        201702   233984.54    
    955000   11658.795      0.25646788        201702   234240.54    
    956000   11686.917      0.25673643        201702   234527.77    
    957000   11714.908      0.25700499        201702   234805.88    
    958000   11742.907      0.25727354        201702   235068.12    
    959000   11771.078      0.25754209        201702   235362.45    
    960000   11799.177      0.25781064        201702   235640.02    
    961000   11827.299      0.2580792         201702   235903.93    
    962000   11855.4        0.25834775        201702   236183.11    
    963000   11883.649      0.2586163         201702   236461.6     
    964000   11911.757      0.25888485        201702   236737.04    
    965000   11939.938      0.25915341        201702   237019.63    
    966000   11968.242      0.25942196        201702   237288.04    
    967000   11996.217      0.25969051        201702   237575.06    
    968000   12024.397      0.25995907        201702   237830.55    
    969000   12052.575      0.26022762        201702   238114.94    
    970000   12080.793      0.26049617        201702   238384.42    
    971000   12109.011      0.26076472        201702   238668.32    
    972000   12137.218      0.26103328        201702   238943.69    
    973000   12165.305      0.26130183        201702   239206.62    
    974000   12193.454      0.26157038        201702   239470.11    
    975000   12221.516      0.26183893        201702   239732.9     
    976000   12249.88       0.26210749        201702   240011.04    
    977000   12278.229      0.26237604        201702   240283.79    
    978000   12306.441      0.26264459        201702   240544.48    
    979000   12334.721      0.26291315        201702   240808.69    
    980000   12363.049      0.2631817         201702   241080.65    
    981000   12391.48       0.26345025        201702   241344.54    
    982000   12419.819      0.2637188         201702   241630.49    
    983000   12448.165      0.26398736        201702   241882.13    
    984000   12476.482      0.26425591        201702   242158.94    
    985000   12504.703      0.26452446        201702   242438.62    
    986000   12533.172      0.26479301        201702   242683.86    
    987000   12561.447      0.26506157        201702   242948.67    
    988000   12589.682      0.26533012        201702   243205.12    
    989000   12617.944      0.26559867        201702   243467.61    
    990000   12646.446      0.26586723        201702   243742.91    
    991000   12675.028      0.26613578        201702   244010.69    
    992000   12703.376      0.26640433        201702   244268.82    
    993000   12731.687      0.26667288        201702   244541.01    
    994000   12760.135      0.26694144        201702   244793.08    
    995000   12788.6        0.26720999        201702   245050.52    
    996000   12817.215      0.26747854        201702   245316.3     
    997000   12845.728      0.2677471         201702   245570.28    
    998000   12874.088      0.26801565        201702   245818.4     
    999000   12902.661      0.2682842         201702   246076.55    
   1000000   12931.115      0.26855275        201702   246326.42    
Loop time of 12931.5 on 4 procs for 500000 steps with 201702 atoms

237.7% CPU use with 1 MPI tasks x 4 OpenMP threads

MPI task timing breakdown:
Section |  min time  |  avg time  |  max time  |%varavg| %total
---------------------------------------------------------------
Pair    | 5661.3     | 5661.3     | 5661.3     |   0.0 | 43.78
Neigh   | 2.3261     | 2.3261     | 2.3261     |   0.0 |  0.02
Comm    | 3.7908     | 3.7908     | 3.7908     |   0.0 |  0.03
Output  | 16.187     | 16.187     | 16.187     |   0.0 |  0.13
Modify  | 6541.1     | 6541.1     | 6541.1     |   0.0 | 50.58
Other   |            | 706.8      |            |       |  5.47

Nlocal:         201702 ave      201702 max      201702 min
Histogram: 1 0 0 0 0 0 0 0 0 0
Nghost:              0 ave           0 max           0 min
Histogram: 1 0 0 0 0 0 0 0 0 0
Neighs:         841460 ave      841460 max      841460 min
Histogram: 1 0 0 0 0 0 0 0 0 0

Total # of neighbors = 841460
Ave neighs/atom = 4.171798
Neighbor list builds = 115
Dangerous builds = 0

region		pour_reg cylinder z 0.0 0.0 0.8999999999999999 		10.01 9.69 side in units box

fix		fill_core all pour 18920 1 ${seed} region pour_reg 		diam one ${d_pebble} dens ${density_rho} ${density_rho} vol 0.25 250
fix		fill_core all pour 18920 1 4345343431384 region pour_reg 		diam one ${d_pebble} dens ${density_rho} ${density_rho} vol 0.25 250
fix		fill_core all pour 18920 1 4345343431384 region pour_reg 		diam one 0.06 dens ${density_rho} ${density_rho} vol 0.25 250
fix		fill_core all pour 18920 1 4345343431384 region pour_reg 		diam one 0.06 dens 1700 ${density_rho} vol 0.25 250
fix		fill_core all pour 18920 1 4345343431384 region pour_reg 		diam one 0.06 dens 1700 1700 vol 0.25 250
ERROR: Integer 4345343431384 in input script or data file is out of range (src/GRANULAR/fix_pour.cpp:73)
Last input line: fix fill_core all pour 18920 1 ${seed} region pour_reg diam one ${d_pebble} dens ${density_rho} ${density_rho} vol 0.25 250
